Title Card Required                                                     
Freq      RHF                                                         3-21G               
Number of atoms                            I                3
Info1-9                                    I   N=           9
          14          14        1002           0           0         100
           6           1           2
Charge                                     I                0
Multiplicity                               I                1
Number of electrons                        I               10
Number of alpha electrons                  I                5
Number of beta electrons                   I                5
Number of basis functions                  I               13
Number of independent functions            I               13
Number of point charges in /Mol/           I                0
Number of translation vectors              I                0
Atomic numbers                             I   N=           3
           8           1           1
Nuclear charges                            R   N=           3
  8.00000000E+00  1.00000000E+00  1.00000000E+00
Current cartesian coordinates              R   N=           9
 -5.23852945E-32  1.66533454E-16  2.15501992E-01 -1.97215226E-31  1.47557962E+00
 -8.62007968E-01 -1.80706386E-16 -1.47557962E+00 -8.62007968E-01
Force Field                                I                0
Int Atom Types                             I   N=           3
           0           0           0
MM charges                                 R   N=           3
  0.00000000E+00  0.00000000E+00  0.00000000E+00
Integer atomic weights                     I   N=           3
          16           1           1
Real atomic weights                        R   N=           3
  1.59949146E+01  1.00782504E+00  1.00782504E+00
Atom fragment info                         I   N=           3
           0           0           0
Atom residue num                           I   N=           3
           0           0           0
Nuclear spins                              I   N=           3
           0           1           1
Nuclear ZEff                               R   N=           3
 -5.60000000E+00 -1.00000000E+00 -1.00000000E+00
Nuclear QMom                               R   N=           3
  0.00000000E+00  0.00000000E+00  0.00000000E+00
Nuclear GFac                               R   N=           3
  0.00000000E+00  2.79284600E+00  2.79284600E+00
MicOpt                                     I   N=           3
          -1          -1          -1
Number of contracted shells                I                7
Number of primitive shells                 I               12
Pure/Cartesian d shells                    I                1
Pure/Cartesian f shells                    I                0
Highest angular momentum                   I                1
Largest degree of contraction              I                3
Shell types                                I   N=           7
           0          -1          -1           0           0           0
           0
Number of primitives per shell             I   N=           7
           3           2           1           2           1           2
           1
Shell to atom map                          I   N=           7
           1           1           1           2           2           3
           3
Primitive exponents                        R   N=          12
  3.22037000E+02  4.84308000E+01  1.04206000E+01  7.40294000E+00  1.57620000E+00
  3.73684000E-01  5.44717800E+00  8.24547240E-01  1.83191580E-01  5.44717800E+00
  8.24547240E-01  1.83191580E-01
Contraction coefficients                   R   N=          12
  5.92393934E-02  3.51499961E-01  7.07657921E-01 -4.04453583E-01  1.22156176E+00
  1.00000000E+00  1.56284979E-01  9.04690877E-01  1.00000000E+00  1.56284979E-01
  9.04690877E-01  1.00000000E+00
P(S=P) Contraction coefficients            R   N=          12
  0.00000000E+00  0.00000000E+00  0.00000000E+00  2.44586107E-01  8.53955373E-01
  1.00000000E+00  0.00000000E+00  0.00000000E+00  0.00000000E+00  0.00000000E+00
  0.00000000E+00  0.00000000E+00
Coordinates of each shell                  R   N=          21
 -5.23852945E-32  1.66533454E-16  2.15501992E-01 -5.23852945E-32  1.66533454E-16
  2.15501992E-01 -5.23852945E-32  1.66533454E-16  2.15501992E-01 -1.97215226E-31
  1.47557962E+00 -8.62007968E-01 -1.97215226E-31  1.47557962E+00 -8.62007968E-01
 -1.80706386E-16 -1.47557962E+00 -8.62007968E-01 -1.80706386E-16 -1.47557962E+00
 -8.62007968E-01
Constraint Structure                       R   N=           9
 -5.23852945E-32  1.66533454E-16  2.15501992E-01 -1.97215226E-31  1.47557962E+00
 -8.62007968E-01 -1.80706386E-16 -1.47557962E+00 -8.62007968E-01
Num ILSW                                   I              100
ILSW                                       I   N=         100
           0           1           0           0           2           0
           0           0           0           0           0          -1
           0           0           0           0           2           0
           0           0           1           0           1           0
           1           0           0           0           0           0
           0           0      100000           0          -1           0
           0           0           0           0           0           0
           0           0           0           1           0           0
           0           0           1           0           0           0
           0           0           4          40           0           0
           0           0           0           0           0           0
           0           0           0           0           0           0
           0           0           0           0           0           0
           0           0           0           0           0           0
           0           0           0           0           0           0
           0           0           0           0           0           0
           0           0           0           0
Num RLSW                                   I               40
RLSW                                       R   N=          40
  1.00000000E+00  1.00000000E+00  1.00000000E+00  1.00000000E+00  1.00000000E+00
  0.00000000E+00  0.00000000E+00  1.00000000E+00  0.00000000E+00  0.00000000E+00
  0.00000000E+00  0.00000000E+00  1.00000000E+00  0.00000000E+00  0.00000000E+00
  0.00000000E+00  0.00000000E+00  1.00000000E+00  0.00000000E+00  0.00000000E+00
  0.00000000E+00  0.00000000E+00  1.00000000E+00  0.00000000E+00  0.00000000E+00
  0.00000000E+00  0.00000000E+00  1.00000000E+00  0.00000000E+00  0.00000000E+00
  0.00000000E+00  0.00000000E+00  1.00000000E+00  0.00000000E+00  0.00000000E+00
  0.00000000E+00  0.00000000E+00  0.00000000E+00  1.00000000E+00  1.00000000E+00
MxBond                                     I                2
NBond                                      I   N=           3
           2           1           1
IBond                                      I   N=           6
           2           3           1           0           1           0
RBond                                      R   N=           6
  1.00000000E+00  1.00000000E+00  1.00000000E+00  0.00000000E+00  1.00000000E+00
  0.00000000E+00
Virial Ratio                               R      2.002146576945409E+00
SCF Energy                                 R     -7.558595959651363E+01
Total Energy                               R     -7.558595959651363E+01
RMS Force                                  R      1.299791418313716E-04
RMS Density                                R      3.412683144125229E-11
External E-field                           R   N=          35
  0.00000000E+00  0.00000000E+00  0.00000000E+00  0.00000000E+00  0.00000000E+00
  0.00000000E+00  0.00000000E+00  0.00000000E+00  0.00000000E+00  0.00000000E+00
  0.00000000E+00  0.00000000E+00  0.00000000E+00  0.00000000E+00  0.00000000E+00
  0.00000000E+00  0.00000000E+00  0.00000000E+00  0.00000000E+00  0.00000000E+00
  0.00000000E+00  0.00000000E+00  0.00000000E+00  0.00000000E+00  0.00000000E+00
  0.00000000E+00  0.00000000E+00  0.00000000E+00  0.00000000E+00  0.00000000E+00
  0.00000000E+00  0.00000000E+00  0.00000000E+00  0.00000000E+00  0.00000000E+00
IOpCl                                      I                0
IROHF                                      I                0
Alpha Orbital Energies                     R   N=          13
 -2.04272183E+01 -1.32081788E+00 -6.85488911E-01 -5.29716369E-01 -4.77196735E-01
  2.61007273E-01  3.60280626E-01  1.20679059E+00  1.27614571E+00  1.78399223E+00
  1.86331912E+00  2.02494352E+00  3.10311916E+00
Alpha MO coefficients                      R   N=         169
  9.83223390E-01  9.57686551E-02  0.00000000E+00  0.00000000E+00 -3.43555076E-03
 -3.76829730E-02  0.00000000E+00  0.00000000E+00  6.42438937E-03  2.45685186E-03
  6.86587127E-03  2.45685186E-03  6.86587127E-03 -2.29790130E-01  2.18027675E-01
  0.00000000E+00  0.00000000E+00 -7.91216416E-02  7.09774673E-01  0.00000000E+00
  0.00000000E+00 -8.98260152E-02  1.14942983E-01  2.05228127E-02  1.14942983E-01
  2.05228127E-02  0.00000000E+00  0.00000000E+00  0.00000000E+00  3.95840340E-01
  0.00000000E+00  0.00000000E+00  0.00000000E+00  3.69705761E-01  0.00000000E+00
  2.32238043E-01  1.82098475E-01 -2.32238043E-01 -1.82098475E-01 -8.57138391E-02
  7.99575596E-02  0.00000000E+00  0.00000000E+00  4.44533767E-01  3.93725481E-01
  0.00000000E+00  0.00000000E+00  5.14983266E-01 -1.27696029E-01 -1.07171172E-01
 -1.27696029E-01 -1.07171172E-01  0.00000000E+00  0.00000000E+00  5.21045778E-01
  0.00000000E+00  0.00000000E+00  0.00000000E+00  6.32335539E-01  0.00000000E+00
  0.00000000E+00  0.00000000E+00  0.00000000E+00  0.00000000E+00  0.00000000E+00
 -1.10325848E-01  3.61620430E-02  0.00000000E+00  0.00000000E+00 -2.07766075E-01
  1.04106849E+00  0.00000000E+00  0.00000000E+00 -4.58366409E-01 -5.26878911E-02
 -8.60293528E-01 -5.26878911E-02 -8.60293528E-01  0.00000000E+00  0.00000000E+00
  0.00000000E+00 -3.04035446E-01  0.00000000E+00  0.00000000E+00  0.00000000E+00
 -7.77920839E-01  0.00000000E+00  3.44783996E-02  1.15536940E+00 -3.44783996E-02
 -1.15536940E+00  0.00000000E+00  0.00000000E+00  0.00000000E+00 -1.99687798E-01
  0.00000000E+00  0.00000000E+00  0.00000000E+00 -4.37022637E-01  0.00000000E+00
  9.67480994E-01 -6.81725465E-01 -9.67480994E-01  6.81725465E-01  6.58091511E-02
 -9.30569502E-02  0.00000000E+00  0.00000000E+00  2.53286169E-01 -9.19121605E-02
  0.00000000E+00  0.00000000E+00  2.85125710E-01  9.75400930E-01 -4.99456895E-01
  9.75400930E-01 -4.99456895E-01  0.00000000E+00  0.00000000E+00  1.02939708E+00
  0.00000000E+00  0.00000000E+00  0.00000000E+00 -9.65038248E-01  0.00000000E+00
  0.00000000E+00  0.00000000E+00  0.00000000E+00  0.00000000E+00  0.00000000E+00
  4.19411663E-02 -1.26356154E-01  0.00000000E+00  0.00000000E+00 -1.01550307E+00
 -1.59675529E-01  0.00000000E+00  0.00000000E+00  1.13182647E+00  2.36883540E-01
  9.25068091E-02  2.36883540E-01  9.25068091E-02  0.00000000E+00  0.00000000E+00
  0.00000000E+00 -1.06603547E+00  0.00000000E+00  0.00000000E+00  0.00000000E+00
  1.41455088E+00  0.00000000E+00 -1.65351588E-01 -4.85307183E-01  1.65351588E-01
  4.85307183E-01  8.67046085E-02 -1.63834075E+00  0.00000000E+00  0.00000000E+00
  1.53690399E-01  1.96846165E+00  0.00000000E+00  0.00000000E+00 -4.62003811E-01
 -2.66003595E-01 -3.58607887E-01 -2.66003595E-01 -3.58607887E-01
Total SCF Density                          R   N=          91
  2.05375720E+00  7.44158094E-02  1.26201827E-01  0.00000000E+00  0.00000000E+00
  5.42977406E-01 -1.29336749E-18  9.97208401E-19 -4.31408308E-32  3.13379150E-01
 -4.65984747E-02  3.59282191E-02 -1.75913042E-32  2.61972289E-18  4.07764614E-01
 -4.67795434E-01  3.65246005E-01 -1.02671032E-32  6.60556030E-18  2.37990391E-01
  1.32043969E+00  0.00000000E+00  0.00000000E+00  6.58951526E-01 -4.77630626E-32
 -2.43666139E-32  0.00000000E+00  7.99696468E-01 -9.53873155E-19  1.23276406E-18
 -4.16000868E-32  2.92688909E-01  4.97757985E-18  7.70293347E-18 -3.69778549E-32
  2.73364700E-01 -3.43669023E-02  4.44150061E-02 -2.03635559E-32  4.97757985E-18
  4.72025123E-01  2.77527426E-01 -2.35823096E-32  7.58478833E-18  5.46635499E-01
 -2.61036236E-02  3.01715555E-02 -1.07852077E-32  1.83858372E-01 -1.31736230E-01
  6.24277118E-02 -1.07852077E-32  1.71719485E-01 -1.52140809E-01  1.66917420E-01
  2.24415961E-02 -6.87413798E-03 -9.24446373E-33  1.44163845E-01 -9.85771831E-02
 -5.57763501E-02 -8.47409176E-33  1.34645711E-01 -1.13981467E-01  1.16702697E-01
  9.02276818E-02 -2.61036236E-02  3.01715555E-02  1.07852077E-32 -1.83858372E-01
 -1.31736230E-01  6.24277118E-02  1.07852077E-32 -1.71719485E-01 -1.52140809E-01
 -4.88206150E-02 -5.24580775E-02  1.66917420E-01  2.24415961E-02 -6.87413798E-03
  9.24446373E-33 -1.44163845E-01 -9.85771831E-02 -5.57763501E-02  8.47409176E-33
 -1.34645711E-01 -1.13981467E-01 -5.24580775E-02 -4.24117371E-02  1.16702697E-01
  9.02276818E-02
QEq coupling tensors                       R   N=          18
  2.06183352E+00  4.09908966E-17 -1.90150490E+00  2.82375735E-17 -8.13238366E-15
 -1.60328615E-01  3.15974129E-01 -2.65561001E-18 -3.06036148E-01  2.34335087E-19
  3.83971680E-01 -9.93798091E-03  3.15974129E-01 -1.03034735E-16 -3.06036148E-01
 -7.38585400E-17 -3.83971680E-01 -9.93798091E-03
Mulliken Charges                           R   N=           3
 -7.32879199E-01  3.66439600E-01  3.66439600E-01
Optimization MaxStp                        I                2
Optimization Job offset                    I                0
Optimization Num results per geometry      I                2
Optimization Num geometry variables        I                9
Opt point       1 Results for each geome   R   N=           2
 -7.55859596E+01  0.00000000E+00
Opt point       1 Geometries               R   N=           9
 -5.23852945E-32  1.66533454E-16  2.15501992E-01 -1.97215226E-31  1.47557962E+00
 -8.62007968E-01 -1.80706386E-16 -1.47557962E+00 -8.62007968E-01
Opt point       1 Gradient at each geome   R   N=           9
  8.46110192E-16  2.76167977E-15  1.26467468E-04  2.84117412E-17  2.53041662E-04
 -6.32337339E-05 -8.74521933E-16 -2.53041662E-04 -6.32337339E-05
Optimization Number of geometries          I   N=           1
           1
ONIOM Charges                              I   N=          16
           0           0           0           0           0           0
           0           0           0           0           0           0
           0           0           0           0
ONIOM Multiplicities                       I   N=          16
           1           0           0           0           0           0
           0           0           0           0           0           0
           0           0           0           0
Atom Layers                                I   N=           3
           1           1           1
Atom Modifiers                             I   N=           3
           0           0           0
Force Field                                I                0
Int Atom Modified Types                    I   N=           3
           0           0           0
Link Atoms                                 I   N=           3
           0           0           0
Atom Modified MM Charges                   R   N=           3
  0.00000000E+00  0.00000000E+00  0.00000000E+00
Link Distances                             R   N=          12
  0.00000000E+00  0.00000000E+00  0.00000000E+00  0.00000000E+00  0.00000000E+00
  0.00000000E+00  0.00000000E+00  0.00000000E+00  0.00000000E+00  0.00000000E+00
  0.00000000E+00  0.00000000E+00
Cartesian Gradient                         R   N=           9
  8.46110192E-16  2.76167977E-15  1.26467468E-04  2.84117412E-17  2.53041662E-04
 -6.32337339E-05 -8.74521933E-16 -2.53041662E-04 -6.32337339E-05
Cartesian Force Constants                  R   N=          45
  1.17370617E-04 -1.03011514E-15  7.14838768E-01 -8.46449818E-16  1.08024700E-13
  4.34810006E-01 -5.86853087E-05 -3.53530450E-17 -4.20235759E-17  1.15085811E-04
 -6.17826062E-17 -3.57419384E-01  1.82376004E-01  5.20500042E-19  3.94770693E-01
  5.26935726E-17  2.60954886E-01 -2.17405003E-01  2.41147681E-18 -2.21665445E-01
  2.04066565E-01 -5.86853087E-05  9.41767432E-16  7.29082984E-16 -5.64005026E-05
  3.42452304E-17 -2.87731172E-17  1.15085811E-04  9.18729509E-16 -3.57419384E-01
 -1.82376004E-01  5.72843996E-17 -3.73513095E-02 -3.92894409E-02 -8.25296276E-16
  3.94770693E-01  6.45901240E-16 -2.60954886E-01 -2.17405003E-01  5.44112543E-17
  3.92894409E-02  1.33384382E-02 -5.67254016E-16  2.21665445E-01  2.04066565E-01
Dipole Moment                              R   N=           3
 -6.34953764E-17 -3.88578059E-16 -9.39014588E-01
Dipole Derivatives                         R   N=          27
 -8.71467199E-01  1.02892427E-15  5.86247244E-16 -1.00804079E-16 -3.87147135E-01
 -9.15933995E-15 -6.84936707E-17 -5.57887070E-15 -3.29661169E-01  4.35733600E-01
  7.09157193E-17  6.34053306E-17 -1.06734917E-17  1.93573568E-01  1.03814464E-01
 -3.30506863E-18  1.76832102E-01  1.64830584E-01  4.35733600E-01 -4.45408078E-16
 -3.20888066E-16  9.34192659E-17  1.93573568E-01 -1.03814464E-01  7.03373036E-17
 -1.76832102E-01  1.64830584E-01
Polarizability                             R   N=           6
  7.83221961E-01  3.68223811E-16  6.80811746E+00  2.13148406E-16  3.99680289E-15
  3.62564470E+00
Polarizability Derivatives                 R   N=          54
  3.73567785E-16  4.66293670E-15  1.60525542E-14  2.63795497E+00  1.09070255E-14
  8.36358827E-15 -8.54871729E-15  4.80097468E-16 -8.12683254E-14  3.41820988E-16
  4.75326765E+00 -6.97220059E-14 -4.79883077E-01  4.34509406E-16  6.00755502E+00
  3.89383446E-16 -5.68434189E-14  6.30291826E+00 -9.89556383E-17  2.04153522E+00
  1.68536215E-15 -1.31897748E+00  8.38014517E-16 -8.69360125E-17 -2.96259178E-01
  1.08235550E-16  5.73804160E+00 -4.19620670E-17 -2.37663382E+00  6.15570083E-01
  2.39941539E-01 -1.09195978E-16 -3.00377751E+00  4.12622438E-17  2.81386582E+00
 -3.15145913E+00 -2.05787033E-16 -2.04153522E+00 -1.08494651E-14 -1.31897748E+00
 -5.77874299E-15 -3.89115055E-15  2.96259178E-01 -1.34680118E-16 -5.73804160E+00
  6.26412868E-17 -2.37663382E+00 -6.15570083E-01  2.39941539E-01  1.75721322E-16
 -3.00377751E+00 -8.24206113E-17 -2.81386582E+00 -3.15145913E+00
HyperPolarizability                        R   N=          10
 -7.37726089E-17  4.44089210E-15 -1.47120767E-15 -6.39488462E-14 -7.25999685E-01
 -1.22277867E-15 -2.07838142E+01 -6.64018168E-16 -1.06581410E-14 -1.10942931E+01
