 Entering Gaussian System, Link 0=g09
 Input=/scratch/cbarnett/project_honsgroup/ph3.com
 Output=/scratch/cbarnett/project_honsgroup/ph3.log
 Initial command:
 /usr/local/g09/g09/l1.exe /scratch/cbarnett/project_honsgroup/Gau-31392.inp -scrdir=/scratch/cbarnett/project_honsgroup/
 Entering Link 1 = /usr/local/g09/g09/l1.exe PID=     31394.
  
 Copyright (c) 1988,1990,1992,1993,1995,1998,2003,2009,2011,
            Gaussian, Inc.  All Rights Reserved.
  
 This is part of the Gaussian(R) 09 program.  It is based on
 the Gaussian(R) 03 system (copyright 2003, Gaussian, Inc.),
 the Gaussian(R) 98 system (copyright 1998, Gaussian, Inc.),
 the Gaussian(R) 94 system (copyright 1995, Gaussian, Inc.),
 the Gaussian 92(TM) system (copyright 1992, Gaussian, Inc.),
 the Gaussian 90(TM) system (copyright 1990, Gaussian, Inc.),
 the Gaussian 88(TM) system (copyright 1988, Gaussian, Inc.),
 the Gaussian 86(TM) system (copyright 1986, Carnegie Mellon
 University), and the Gaussian 82(TM) system (copyright 1983,
 Carnegie Mellon University). Gaussian is a federally registered
 trademark of Gaussian, Inc.
  
 This software contains proprietary and confidential information,
 including trade secrets, belonging to Gaussian, Inc.
  
 This software is provided under written license and may be
 used, copied, transmitted, or stored only in accord with that
 written license.
  
 The following legend is applicable only to US Government
 contracts under FAR:
  
                    RESTRICTED RIGHTS LEGEND
  
 Use, reproduction and disclosure by the US Government is
 subject to restrictions as set forth in subparagraphs (a)
 and (c) of the Commercial Computer Software - Restricted
 Rights clause in FAR 52.227-19.
  
 Gaussian, Inc.
 340 Quinnipiac St., Bldg. 40, Wallingford CT 06492
  
  
 ---------------------------------------------------------------
 Warning -- This program may not be used in any manner that
 competes with the business of Gaussian, Inc. or will provide
 assistance to any competitor of Gaussian, Inc.  The licensee
 of this program is prohibited from giving any competitor of
 Gaussian, Inc. access to this program.  By using this program,
 the user acknowledges that Gaussian, Inc. is engaged in the
 business of creating and licensing software in the field of
 computational chemistry and represents and warrants to the
 licensee that it is not a competitor of Gaussian, Inc. and that
 it will not use this program in any manner prohibited above.
 ---------------------------------------------------------------
  

 Cite this work as:
 Gaussian 09, Revision C.01,
 M. J. Frisch, G. W. Trucks, H. B. Schlegel, G. E. Scuseria, 
 M. A. Robb, J. R. Cheeseman, G. Scalmani, V. Barone, B. Mennucci, 
 G. A. Petersson, H. Nakatsuji, M. Caricato, X. Li, H. P. Hratchian, 
 A. F. Izmaylov, J. Bloino, G. Zheng, J. L. Sonnenberg, M. Hada, 
 M. Ehara, K. Toyota, R. Fukuda, J. Hasegawa, M. Ishida, T. Nakajima, 
 Y. Honda, O. Kitao, H. Nakai, T. Vreven, J. A. Montgomery, Jr., 
 J. E. Peralta, F. Ogliaro, M. Bearpark, J. J. Heyd, E. Brothers, 
 K. N. Kudin, V. N. Staroverov, T. Keith, R. Kobayashi, J. Normand, 
 K. Raghavachari, A. Rendell, J. C. Burant, S. S. Iyengar, J. Tomasi, 
 M. Cossi, N. Rega, J. M. Millam, M. Klene, J. E. Knox, J. B. Cross, 
 V. Bakken, C. Adamo, J. Jaramillo, R. Gomperts, R. E. Stratmann, 
 O. Yazyev, A. J. Austin, R. Cammi, C. Pomelli, J. W. Ochterski, 
 R. L. Martin, K. Morokuma, V. G. Zakrzewski, G. A. Voth, 
 P. Salvador, J. J. Dannenberg, S. Dapprich, A. D. Daniels, 
 O. Farkas, J. B. Foresman, J. V. Ortiz, J. Cioslowski, 
 and D. J. Fox, Gaussian, Inc., Wallingford CT, 2010.
 
 ******************************************
 Gaussian 09:  EM64L-G09RevC.01 23-Sep-2011
                27-Feb-2019 
 ******************************************
 %chk=ph3.chk
 -------------------------------------
 # opt freq hf/3-21g geom=connectivity
 -------------------------------------
 1/18=20,19=15,38=1,57=2/1,3;
 2/9=110,12=2,17=6,18=5,40=1/2;
 3/5=5,11=9,16=1,25=1,30=1,71=1/1,2,3;
 4//1;
 5/5=2,38=5/2;
 6/7=2,8=2,9=2,10=2,28=1/1;
 7//1,2,3,16;
 1/18=20,19=15/3(2);
 2/9=110/2;
 99//99;
 2/9=110/2;
 3/5=5,11=9,16=1,25=1,30=1,71=1/1,2,3;
 4/5=5,16=3/1;
 5/5=2,38=5/2;
 7//1,2,3,16;
 1/18=20,19=15/3(-5);
 2/9=110/2;
 6/7=2,8=2,9=2,10=2,19=2,28=1/1;
 99/9=1/99;
 -------------------
 Title Card Required
 -------------------
 Charge =  0 Multiplicity = 1
 Symbolic Z-Matrix:
 P                    -0.91185   0.56231   0. 
 H                    -0.46187  -0.71049   0. 
 H                    -0.46185   1.1987    1.10227 
 H                    -0.46185   1.1987   -1.10227 
 

 GradGradGradGradGradGradGradGradGradGradGradGradGradGradGradGradGradGrad
 Berny optimization.
 Initialization pass.
                           ----------------------------
                           !    Initial Parameters    !
                           ! (Angstroms and Degrees)  !
 --------------------------                            --------------------------
 ! Name  Definition              Value          Derivative Info.                !
 --------------------------------------------------------------------------------
 ! R1    R(1,2)                  1.35           estimate D2E/DX2                !
 ! R2    R(1,3)                  1.35           estimate D2E/DX2                !
 ! R3    R(1,4)                  1.35           estimate D2E/DX2                !
 ! A1    A(2,1,3)              109.4712         estimate D2E/DX2                !
 ! A2    A(2,1,4)              109.4712         estimate D2E/DX2                !
 ! A3    A(3,1,4)              109.4713         estimate D2E/DX2                !
 ! D1    D(2,1,4,3)           -120.0            estimate D2E/DX2                !
 --------------------------------------------------------------------------------
 Trust Radius=3.00D-01 FncErr=1.00D-07 GrdErr=1.00D-07
 Number of steps in this run=     20 maximum allowed number of steps=    100.
 GradGradGradGradGradGradGradGradGradGradGradGradGradGradGradGradGradGrad

                          Input orientation:                          
 ---------------------------------------------------------------------
 Center     Atomic      Atomic             Coordinates (Angstroms)
 Number     Number       Type             X           Y           Z
 ---------------------------------------------------------------------
      1         15           0       -0.911854    0.562310    0.000000
      2          1           0       -0.461870   -0.710488    0.000000
      3          1           0       -0.461846    1.198700    1.102271
      4          1           0       -0.461846    1.198700   -1.102271
 ---------------------------------------------------------------------
                    Distance matrix (angstroms):
                    1          2          3          4
     1  P    0.000000
     2  H    1.350000   0.000000
     3  H    1.350000   2.204541   0.000000
     4  H    1.350000   2.204541   2.204541   0.000000
 Stoichiometry    H3P
 Framework group  C3[C3(P),X(H3)]
 Deg. of freedom     2
 Full point group                 C3      NOp   3
 Largest Abelian subgroup         C1      NOp   1
 Largest concise Abelian subgroup C1      NOp   1
                         Standard orientation:                         
 ---------------------------------------------------------------------
 Center     Atomic      Atomic             Coordinates (Angstroms)
 Number     Number       Type             X           Y           Z
 ---------------------------------------------------------------------
      1         15           0        0.000000    0.000000    0.075000
      2          1           0        0.000000    1.272792   -0.375000
      3          1           0       -1.102270   -0.636396   -0.375000
      4          1           0        1.102270   -0.636396   -0.375000
 ---------------------------------------------------------------------
 Rotational constants (GHZ):    168.0776483    168.0776483    103.1800631
 Standard basis: 3-21G (6D, 7F)
 There are    19 symmetry adapted basis functions of A   symmetry.
 Integral buffers will be    131072 words long.
 Raffenetti 1 integral format.
 Two-electron integral symmetry is turned on.
    19 basis functions,    36 primitive gaussians,    19 cartesian basis functions
     9 alpha electrons        9 beta electrons
       nuclear repulsion energy        18.3593599722 Hartrees.



 Warning!  P  atom    1 may be hypervalent but has no d functions.



 NAtoms=    4 NActive=    4 NUniq=    2 SFac= 4.00D+00 NAtFMM=   60 NAOKFM=F Big=F
 One-electron integrals computed using PRISM.
 NBasis=    19 RedAO= T  NBF=    19
 NBsUse=    19 1.00D-06 NBFU=    19
 Harris functional with IExCor=  205 diagonalized for initial guess.
 ExpMin= 1.23D-01 ExpMax= 1.05D+03 ExpMxC= 1.05D+03 IAcc=1 IRadAn=         1 AccDes= 0.00D+00
 HarFok:  IExCor=  205 AccDes= 0.00D+00 IRadAn=         1 IDoV= 1
 ScaDFX=  1.000000  1.000000  1.000000  1.000000
 FoFCou: FMM=F IPFlag=           0 FMFlag=      100000 FMFlg1=           0
         NFxFlg=           0 DoJE=T BraDBF=F KetDBF=T FulRan=T
         Omega=  0.000000  0.000000  1.000000  0.000000  0.000000 ICntrl=     500 IOpCl=  0
         NMat0=    1 NMatS0=    1 NMatT0=    0 NMatD0=    1 NMtDS0=    0 NMtDT0=    0
         I1Cent=           4 NGrid=           0.
 Petite list used in FoFCou.
 Initial guess orbital symmetries:
       Occupied  (A) (A) (E) (E) (A) (A) (E) (E) (A)
       Virtual   (E) (E) (A) (E) (E) (A) (A) (A) (E) (E)
 The electronic state of the initial guess is 1-A.
 Requested convergence on RMS density matrix=1.00D-08 within 128 cycles.
 Requested convergence on MAX density matrix=1.00D-06.
 Requested convergence on             energy=1.00D-06.
 No special actions if energy rises.
 Keep R1 ints in memory in canonical form, NReq=837937.
 SCF Done:  E(RHF) =  -340.685775801     A.U. after    9 cycles
             Convg  =    0.2789D-08             -V/T =  2.0000

 **********************************************************************

            Population analysis using the SCF density.

 **********************************************************************

 Orbital symmetries:
       Occupied  (A) (A) (E) (E) (A) (A) (E) (E) (A)
       Virtual   (E) (E) (A) (A) (E) (E) (A) (A) (E) (E)
 The electronic state is 1-A.
 Alpha  occ. eigenvalues --  -79.36372  -7.44424  -5.33042  -5.33042  -5.32580
 Alpha  occ. eigenvalues --   -0.88343  -0.56339  -0.56339  -0.33842
 Alpha virt. eigenvalues --    0.21436   0.21436   0.24141   0.57739   0.58791
 Alpha virt. eigenvalues --    0.58791   0.66212   1.20571   1.29950   1.29950
          Condensed to atoms (all electrons):
              1          2          3          4
     1  P   13.878944   0.344491   0.344491   0.344491
     2  H    0.344491   0.738854  -0.027075  -0.027075
     3  H    0.344491  -0.027075   0.738854  -0.027075
     4  H    0.344491  -0.027075  -0.027075   0.738854
 Mulliken atomic charges:
              1
     1  P    0.087583
     2  H   -0.029194
     3  H   -0.029194
     4  H   -0.029194
 Sum of Mulliken atomic charges =   0.00000
 Mulliken charges with hydrogens summed into heavy atoms:
              1
     1  P    0.000000
 Sum of Mulliken charges with hydrogens summed into heavy atoms =   0.00000
 Electronic spatial extent (au):  <R**2>=             54.6655
 Charge=              0.0000 electrons
 Dipole moment (field-independent basis, Debye):
    X=              0.0000    Y=              0.0000    Z=             -1.5815  Tot=              1.5815
 Quadrupole moment (field-independent basis, Debye-Ang):
   XX=            -14.5845   YY=            -14.5845   ZZ=            -18.5828
   XY=              0.0000   XZ=              0.0000   YZ=              0.0000
 Traceless Quadrupole moment (field-independent basis, Debye-Ang):
   XX=              1.3328   YY=              1.3328   ZZ=             -2.6655
   XY=              0.0000   XZ=              0.0000   YZ=              0.0000
 Octapole moment (field-independent basis, Debye-Ang**2):
  XXX=              0.0000  YYY=             -0.2577  ZZZ=             -2.7334  XYY=              0.0000
  XXY=              0.2577  XXZ=             -0.3645  XZZ=              0.0000  YZZ=              0.0000
  YYZ=             -0.3645  XYZ=              0.0000
 Hexadecapole moment (field-independent basis, Debye-Ang**3):
 XXXX=            -31.2913 YYYY=            -31.2913 ZZZZ=            -32.5239 XXXY=              0.0000
 XXXZ=              0.0000 YYYX=              0.0000 YYYZ=             -0.0574 ZZZX=              0.0000
 ZZZY=              0.0000 XXYY=            -10.4304 XXZZ=            -10.6779 YYZZ=            -10.6779
 XXYZ=              0.0574 YYXZ=              0.0000 ZZXY=              0.0000
 N-N= 1.835935997219D+01 E-N=-8.485038682141D+02  KE= 3.407000619342D+02
 Calling FoFJK, ICntrl=      2127 FMM=F ISym2X=1 I1Cent= 0 IOpClX= 0 NMat=1 NMatS=1 NMatT=0.
 ***** Axes restored to original set *****
 -------------------------------------------------------------------
 Center     Atomic                   Forces (Hartrees/Bohr)
 Number     Number              X              Y              Z
 -------------------------------------------------------------------
      1       15          -0.070108368    0.000000843    0.000000000
      2        1           0.023369212   -0.020298422    0.000000000
      3        1           0.023369578    0.010148789    0.017578706
      4        1           0.023369578    0.010148789   -0.017578706
 -------------------------------------------------------------------
 Cartesian Forces:  Max     0.070108368 RMS     0.025478130

 GradGradGradGradGradGradGradGradGradGradGradGradGradGradGradGradGradGrad
 Berny optimization.
 Internal  Forces:  Max     0.029354557 RMS     0.023680949
 Search for a local minimum.
 Step number   1 out of a maximum of   20
 All quantities printed in internal units (Hartrees-Bohrs-Radians)
 Mixed Optimization -- RFO/linear search
 Second derivative matrix not updated -- first step.
 The second derivative matrix:
                          R1        R2        R3        A1        A2
           R1           0.25638
           R2           0.00000   0.25638
           R3           0.00000   0.00000   0.25638
           A1           0.00000   0.00000   0.00000   0.16000
           A2           0.00000   0.00000   0.00000   0.00000   0.16000
           A3           0.00000   0.00000   0.00000   0.00000   0.00000
           D1           0.00000   0.00000   0.00000   0.00000   0.00000
                          A3        D1
           A3           0.16000
           D1           0.00000   0.01162
 ITU=  0
     Eigenvalues ---    0.05728   0.16000   0.16000   0.25638   0.25638
     Eigenvalues ---    0.25638
 RFO step:  Lambda=-2.54827750D-02 EMin= 5.72771577D-02
 Linear search not attempted -- first point.
 Maximum step size (   0.300) exceeded in Quadratic search.
    -- Step size scaled by   0.952
 Iteration  1 RMS(Cart)=  0.10071266 RMS(Int)=  0.05461996
 Iteration  2 RMS(Cart)=  0.05134344 RMS(Int)=  0.02033983
 Iteration  3 RMS(Cart)=  0.00268728 RMS(Int)=  0.02019327
 Iteration  4 RMS(Cart)=  0.00012706 RMS(Int)=  0.02019307
 Iteration  5 RMS(Cart)=  0.00000578 RMS(Int)=  0.02019307
 Iteration  6 RMS(Cart)=  0.00000027 RMS(Int)=  0.02019307
 ClnCor:  largest displacement from symmetrization is 1.68D-02 for atom     3.
 Variable       Old X    -DE/DX   Delta X   Delta X   Delta X     New X
                                 (Linear)    (Quad)   (Total)
    R1        2.55113   0.02693   0.00000   0.09097   0.09369   2.64482
    R2        2.55113   0.02693   0.00000   0.09097   0.09369   2.64482
    R3        2.55113   0.02693   0.00000   0.09097   0.09369   2.64482
    A1        1.91063  -0.00300   0.00000  -0.11720  -0.16224   1.74840
    A2        1.91063  -0.02097   0.00000  -0.15858  -0.16224   1.74840
    A3        1.91063  -0.02097   0.00000  -0.15858  -0.16224   1.74840
    D1       -2.09440   0.02935   0.00000   0.33776   0.30734  -1.78705
         Item               Value     Threshold  Converged?
 Maximum Force            0.029355     0.000450     NO 
 RMS     Force            0.023681     0.000300     NO 
 Maximum Displacement     0.282740     0.001800     NO 
 RMS     Displacement     0.130351     0.001200     NO 
 Predicted change in Energy=-1.363952D-02
 GradGradGradGradGradGradGradGradGradGradGradGradGradGradGradGradGradGrad

                          Input orientation:                          
 ---------------------------------------------------------------------
 Center     Atomic      Atomic             Coordinates (Angstroms)
 Number     Number       Type             X           Y           Z
 ---------------------------------------------------------------------
      1         15           0       -1.061474    0.562312    0.000000
      2          1           0       -0.411693   -0.677279   -0.004439
      3          1           0       -0.411671    1.178251    1.075730
      4          1           0       -0.411671    1.185940   -1.071291
 ---------------------------------------------------------------------
                    Distance matrix (angstroms):
                    1          2          3          4
     1  P    0.000000
     2  H    1.399578   0.000000
     3  H    1.399578   2.147034   0.000000
     4  H    1.399578   2.147034   2.147034   0.000000
 Stoichiometry    H3P
 Framework group  C3V[C3(P),3SGV(H)]
 Deg. of freedom     2
 Full point group                 C3V     NOp   6
 Omega: Change in point group or standard orientation.

 Old FWG=C03  [C3(P1),X(H3)]
 New FWG=C03V [C3(P1),3SGV(H1)]
 Largest Abelian subgroup         CS      NOp   2
 Largest concise Abelian subgroup CS      NOp   2
                         Standard orientation:                         
 ---------------------------------------------------------------------
 Center     Atomic      Atomic             Coordinates (Angstroms)
 Number     Number       Type             X           Y           Z
 ---------------------------------------------------------------------
      1         15           0        0.000000    0.000000    0.108299
      2          1           0        0.000000    1.239591   -0.541496
      3          1           0       -1.073517   -0.619795   -0.541496
      4          1           0        1.073517   -0.619795   -0.541496
 ---------------------------------------------------------------------
 Rotational constants (GHZ):    144.9741289    144.9741289    108.7812871
 Standard basis: 3-21G (6D, 7F)
 There are    14 symmetry adapted basis functions of A'  symmetry.
 There are     5 symmetry adapted basis functions of A"  symmetry.
 Integral buffers will be    131072 words long.
 Raffenetti 1 integral format.
 Two-electron integral symmetry is turned on.
    19 basis functions,    36 primitive gaussians,    19 cartesian basis functions
     9 alpha electrons        9 beta electrons
       nuclear repulsion energy        17.7538005395 Hartrees.
 NAtoms=    4 NActive=    4 NUniq=    2 SFac= 4.00D+00 NAtFMM=   60 NAOKFM=F Big=F
 One-electron integrals computed using PRISM.
 NBasis=    19 RedAO= T  NBF=    14     5
 NBsUse=    19 1.00D-06 NBFU=    14     5
 Initial guess read from the read-write file.
 B after Tr=     0.000000    0.000000    0.000000
         Rot=    1.000000    0.000000    0.000000    0.000000 Ang=   0.00 deg.
 Initial guess orbital symmetries:
       Occupied  (A1) (A1) (E) (E) (A1) (A1) (E) (E) (A1)
       Virtual   (E) (E) (A1) (A1) (E) (E) (A1) (A1) (E) (E)
 Harris functional with IExCor=  205 diagonalized for initial guess.
 ExpMin= 1.23D-01 ExpMax= 1.05D+03 ExpMxC= 1.05D+03 IAcc=1 IRadAn=         1 AccDes= 0.00D+00
 HarFok:  IExCor=  205 AccDes= 0.00D+00 IRadAn=         1 IDoV= 1
 ScaDFX=  1.000000  1.000000  1.000000  1.000000
 FoFCou: FMM=F IPFlag=           0 FMFlag=      100000 FMFlg1=           0
         NFxFlg=           0 DoJE=T BraDBF=F KetDBF=T FulRan=T
         Omega=  0.000000  0.000000  1.000000  0.000000  0.000000 ICntrl=     500 IOpCl=  0
         NMat0=    1 NMatS0=    1 NMatT0=    0 NMatD0=    1 NMtDS0=    0 NMtDT0=    0
         I1Cent=           4 NGrid=           0.
 Petite list used in FoFCou.
 Requested convergence on RMS density matrix=1.00D-08 within 128 cycles.
 Requested convergence on MAX density matrix=1.00D-06.
 Requested convergence on             energy=1.00D-06.
 No special actions if energy rises.
 Keep R1 ints in memory in canonical form, NReq=837986.
 An orbital has undefined symmetry, so N**3 symmetry is turned off.
 SCF Done:  E(RHF) =  -340.702790910     A.U. after   10 cycles
             Convg  =    0.1812D-08             -V/T =  2.0005
 Calling FoFJK, ICntrl=      2127 FMM=F ISym2X=1 I1Cent= 0 IOpClX= 0 NMat=1 NMatS=1 NMatT=0.
 ***** Axes restored to original set *****
 -------------------------------------------------------------------
 Center     Atomic                   Forces (Hartrees/Bohr)
 Number     Number              X              Y              Z
 -------------------------------------------------------------------
      1       15          -0.025202791    0.000000303    0.000000000
      2        1           0.008400880   -0.004208433   -0.000015070
      3        1           0.008400956    0.002091014    0.003652058
      4        1           0.008400956    0.002117116   -0.003636988
 -------------------------------------------------------------------
 Cartesian Forces:  Max     0.025202791 RMS     0.008660439

 GradGradGradGradGradGradGradGradGradGradGradGradGradGradGradGradGradGrad
 Berny optimization.
 Using GEDIIS/GDIIS optimizer.
 Internal  Forces:  Max     0.009817311 RMS     0.007936495
 Search for a local minimum.
 Step number   2 out of a maximum of   20
 All quantities printed in internal units (Hartrees-Bohrs-Radians)
 Mixed Optimization -- RFO/linear search
 Update second derivatives using D2CorX and points    1    2
 DE= -1.70D-02 DEPred=-1.36D-02 R= 1.25D+00
 SS=  1.41D+00  RLast= 4.47D-01 DXNew= 5.0454D-01 1.3408D+00
 Trust test= 1.25D+00 RLast= 4.47D-01 DXMaxT set to 5.05D-01
 The second derivative matrix:
                          R1        R2        R3        A1        A2
           R1           0.25212
           R2          -0.00426   0.25212
           R3          -0.00426  -0.00426   0.25212
           A1           0.03091   0.03091   0.03091   0.12711
           A2           0.01662   0.01662   0.01662  -0.03316   0.13509
           A3           0.01662   0.01662   0.01662  -0.03316  -0.02491
           D1           0.02240   0.02240   0.02240   0.00504  -0.01084
                          A3        D1
           A3           0.13509
           D1          -0.01084   0.04057
 ITU=  1  0
 Use linear search instead of GDIIS.
     Eigenvalues ---    0.06100   0.13841   0.16000   0.24912   0.25638
     Eigenvalues ---    0.25638
 RFO step:  Lambda=-1.54633180D-04 EMin= 6.09979009D-02
 Quartic linear search produced a step of  0.34855.
 Iteration  1 RMS(Cart)=  0.05573435 RMS(Int)=  0.00900717
 Iteration  2 RMS(Cart)=  0.00317896 RMS(Int)=  0.00845421
 Iteration  3 RMS(Cart)=  0.00001426 RMS(Int)=  0.00845420
 Iteration  4 RMS(Cart)=  0.00000023 RMS(Int)=  0.00845420
 ClnCor:  largest displacement from symmetrization is 1.79D-02 for atom     4.
 Variable       Old X    -DE/DX   Delta X   Delta X   Delta X     New X
                                 (Linear)    (Quad)   (Total)
    R1        2.64482   0.00763   0.03266  -0.00040   0.03628   2.68110
    R2        2.64482   0.00763   0.03266  -0.00040   0.03628   2.68110
    R3        2.64482   0.00763   0.03266  -0.00040   0.03628   2.68110
    A1        1.74840  -0.00337  -0.05655   0.01533  -0.06907   1.67933
    A2        1.74840  -0.00982  -0.05655  -0.02000  -0.06907   1.67933
    A3        1.74840  -0.00982  -0.05655  -0.02000  -0.06907   1.67933
    D1       -1.78705   0.00789   0.10712  -0.00702   0.09448  -1.69258
         Item               Value     Threshold  Converged?
 Maximum Force            0.009817     0.000450     NO 
 RMS     Force            0.007936     0.000300     NO 
 Maximum Displacement     0.107801     0.001800     NO 
 RMS     Displacement     0.052716     0.001200     NO 
 Predicted change in Energy=-2.133468D-03
 GradGradGradGradGradGradGradGradGradGradGradGradGradGradGradGradGradGrad

                          Input orientation:                          
 ---------------------------------------------------------------------
 Center     Atomic      Atomic             Coordinates (Angstroms)
 Number     Number       Type             X           Y           Z
 ---------------------------------------------------------------------
      1         15           0       -1.118519    0.562312    0.000000
      2          1           0       -0.393542   -0.657241   -0.004367
      3          1           0       -0.393520    1.168294    1.058340
      4          1           0       -0.393520    1.175858   -1.053973
 ---------------------------------------------------------------------
                    Distance matrix (angstroms):
                    1          2          3          4
     1  P    0.000000
     2  H    1.418775   0.000000
     3  H    1.418775   2.112326   0.000000
     4  H    1.418775   2.112326   2.112326   0.000000
 Stoichiometry    H3P
 Framework group  C3V[C3(P),3SGV(H)]
 Deg. of freedom     2
 Full point group                 C3V     NOp   6
 Largest Abelian subgroup         CS      NOp   2
 Largest concise Abelian subgroup CS      NOp   2
                         Standard orientation:                         
 ---------------------------------------------------------------------
 Center     Atomic      Atomic             Coordinates (Angstroms)
 Number     Number       Type             X           Y           Z
 ---------------------------------------------------------------------
      1         15           0        0.000000    0.000000    0.120832
      2          1           0        0.000000    1.219552   -0.604160
      3          1           0       -1.056163   -0.609776   -0.604160
      4          1           0        1.056163   -0.609776   -0.604160
 ---------------------------------------------------------------------
 Rotational constants (GHZ):    136.7267743    136.7267743    112.3854293
 Standard basis: 3-21G (6D, 7F)
 There are    14 symmetry adapted basis functions of A'  symmetry.
 There are     5 symmetry adapted basis functions of A"  symmetry.
 Integral buffers will be    131072 words long.
 Raffenetti 1 integral format.
 Two-electron integral symmetry is turned on.
    19 basis functions,    36 primitive gaussians,    19 cartesian basis functions
     9 alpha electrons        9 beta electrons
       nuclear repulsion energy        17.5357387312 Hartrees.
 NAtoms=    4 NActive=    4 NUniq=    2 SFac= 4.00D+00 NAtFMM=   60 NAOKFM=F Big=F
 One-electron integrals computed using PRISM.
 NBasis=    19 RedAO= T  NBF=    14     5
 NBsUse=    19 1.00D-06 NBFU=    14     5
 Initial guess read from the read-write file.
 B after Tr=     0.000000    0.000000    0.000000
         Rot=    1.000000    0.000000    0.000000    0.000000 Ang=   0.00 deg.
 Initial guess orbital symmetries:
       Occupied  (A1) (A1) (E) (E) (A1) (A1) (E) (E) (A1)
       Virtual   (E) (E) (A1) (E) (E) (A1) (A1) (A1) (E) (E)
 Harris functional with IExCor=  205 diagonalized for initial guess.
 ExpMin= 1.23D-01 ExpMax= 1.05D+03 ExpMxC= 1.05D+03 IAcc=1 IRadAn=         1 AccDes= 0.00D+00
 HarFok:  IExCor=  205 AccDes= 0.00D+00 IRadAn=         1 IDoV= 1
 ScaDFX=  1.000000  1.000000  1.000000  1.000000
 FoFCou: FMM=F IPFlag=           0 FMFlag=      100000 FMFlg1=           0
         NFxFlg=           0 DoJE=T BraDBF=F KetDBF=T FulRan=T
         Omega=  0.000000  0.000000  1.000000  0.000000  0.000000 ICntrl=     500 IOpCl=  0
         NMat0=    1 NMatS0=    1 NMatT0=    0 NMatD0=    1 NMtDS0=    0 NMtDT0=    0
         I1Cent=           4 NGrid=           0.
 Petite list used in FoFCou.
 Requested convergence on RMS density matrix=1.00D-08 within 128 cycles.
 Requested convergence on MAX density matrix=1.00D-06.
 Requested convergence on             energy=1.00D-06.
 No special actions if energy rises.
 Keep R1 ints in memory in canonical form, NReq=837986.
 An orbital has undefined symmetry, so N**3 symmetry is turned off.
 SCF Done:  E(RHF) =  -340.704501273     A.U. after    9 cycles
             Convg  =    0.9455D-09             -V/T =  2.0006
 Calling FoFJK, ICntrl=      2127 FMM=F ISym2X=1 I1Cent= 0 IOpClX= 0 NMat=1 NMatS=1 NMatT=0.
 ***** Axes restored to original set *****
 -------------------------------------------------------------------
 Center     Atomic                   Forces (Hartrees/Bohr)
 Number     Number              X              Y              Z
 -------------------------------------------------------------------
      1       15          -0.002644686    0.000000032    0.000000000
      2        1           0.000881547   -0.001269146   -0.000004545
      3        1           0.000881570    0.000630621    0.001101376
      4        1           0.000881570    0.000638493   -0.001096831
 -------------------------------------------------------------------
 Cartesian Forces:  Max     0.002644686 RMS     0.001086201

 GradGradGradGradGradGradGradGradGradGradGradGradGradGradGradGradGradGrad
 Berny optimization.
 Using GEDIIS/GDIIS optimizer.
 Internal  Forces:  Max     0.001541410 RMS     0.001016763
 Search for a local minimum.
 Step number   3 out of a maximum of   20
 All quantities printed in internal units (Hartrees-Bohrs-Radians)
 Mixed Optimization -- RFO/linear search
 Update second derivatives using D2CorX and points    2    3
 DE= -1.71D-03 DEPred=-2.13D-03 R= 8.02D-01
 SS=  1.41D+00  RLast= 1.65D-01 DXNew= 8.4853D-01 4.9463D-01
 Trust test= 8.02D-01 RLast= 1.65D-01 DXMaxT set to 5.05D-01
 The second derivative matrix:
                          R1        R2        R3        A1        A2
           R1           0.24404
           R2          -0.01234   0.24404
           R3          -0.01234  -0.01234   0.24404
           A1           0.02525   0.02525   0.02525   0.13071
           A2           0.01113   0.01113   0.01113  -0.02324   0.15645
           A3           0.01113   0.01113   0.01113  -0.02324  -0.00355
           D1           0.01493   0.01493   0.01493  -0.00231  -0.01979
                          A3        D1
           A3           0.15645
           D1          -0.01979   0.03425
 ITU=  1  1  0
 Use linear search instead of GDIIS.
     Eigenvalues ---    0.08152   0.15733   0.16000   0.22687   0.25638
     Eigenvalues ---    0.25638
 RFO step:  Lambda=-1.99506086D-05 EMin= 8.15215244D-02
 Quartic linear search produced a step of  0.06955.
 Iteration  1 RMS(Cart)=  0.00355154 RMS(Int)=  0.00013926
 Iteration  2 RMS(Cart)=  0.00000674 RMS(Int)=  0.00013914
 Iteration  3 RMS(Cart)=  0.00000000 RMS(Int)=  0.00013914
 ClnCor:  largest displacement from symmetrization is 9.67D-06 for atom     4.
 Variable       Old X    -DE/DX   Delta X   Delta X   Delta X     New X
                                 (Linear)    (Quad)   (Total)
    R1        2.68110   0.00154   0.00252   0.00470   0.00722   2.68832
    R2        2.68110   0.00154   0.00252   0.00470   0.00722   2.68832
    R3        2.68110   0.00154   0.00252   0.00470   0.00722   2.68832
    A1        1.67933  -0.00008  -0.00480   0.00270  -0.00235   1.67698
    A2        1.67933  -0.00020  -0.00480   0.00249  -0.00235   1.67698
    A3        1.67933  -0.00020  -0.00480   0.00249  -0.00235   1.67698
    D1       -1.69258   0.00014   0.00657  -0.00335   0.00296  -1.68962
         Item               Value     Threshold  Converged?
 Maximum Force            0.001541     0.000450     NO 
 RMS     Force            0.001017     0.000300     NO 
 Maximum Displacement     0.005840     0.001800     NO 
 RMS     Displacement     0.003548     0.001200     NO 
 Predicted change in Energy=-1.786675D-05
 GradGradGradGradGradGradGradGradGradGradGradGradGradGradGradGradGradGrad

                          Input orientation:                          
 ---------------------------------------------------------------------
 Center     Atomic      Atomic             Coordinates (Angstroms)
 Number     Number       Type             X           Y           Z
 ---------------------------------------------------------------------
      1         15           0       -1.121610    0.562312    0.000000
      2          1           0       -0.392511   -0.659236   -0.004374
      3          1           0       -0.392489    1.169285    1.060071
      4          1           0       -0.392489    1.176862   -1.055697
 ---------------------------------------------------------------------
                    Distance matrix (angstroms):
                    1          2          3          4
     1  P    0.000000
     2  H    1.422598   0.000000
     3  H    1.422598   2.115782   0.000000
     4  H    1.422598   2.115782   2.115782   0.000000
 Stoichiometry    H3P
 Framework group  C3V[C3(P),3SGV(H)]
 Deg. of freedom     2
 Full point group                 C3V     NOp   6
 Largest Abelian subgroup         CS      NOp   2
 Largest concise Abelian subgroup CS      NOp   2
                         Standard orientation:                         
 ---------------------------------------------------------------------
 Center     Atomic      Atomic             Coordinates (Angstroms)
 Number     Number       Type             X           Y           Z
 ---------------------------------------------------------------------
      1         15           0        0.000000    0.000000    0.121519
      2          1           0        0.000000    1.221547   -0.607595
      3          1           0       -1.057891   -0.610774   -0.607595
      4          1           0        1.057891   -0.610774   -0.607595
 ---------------------------------------------------------------------
 Rotational constants (GHZ):    135.8494691    135.8494691    112.0186386
 Standard basis: 3-21G (6D, 7F)
 There are    14 symmetry adapted basis functions of A'  symmetry.
 There are     5 symmetry adapted basis functions of A"  symmetry.
 Integral buffers will be    131072 words long.
 Raffenetti 1 integral format.
 Two-electron integral symmetry is turned on.
    19 basis functions,    36 primitive gaussians,    19 cartesian basis functions
     9 alpha electrons        9 beta electrons
       nuclear repulsion energy        17.4894050518 Hartrees.
 NAtoms=    4 NActive=    4 NUniq=    2 SFac= 4.00D+00 NAtFMM=   60 NAOKFM=F Big=F
 One-electron integrals computed using PRISM.
 NBasis=    19 RedAO= T  NBF=    14     5
 NBsUse=    19 1.00D-06 NBFU=    14     5
 Initial guess read from the read-write file.
 B after Tr=     0.000000    0.000000    0.000000
         Rot=    1.000000    0.000000    0.000000    0.000000 Ang=   0.00 deg.
 Initial guess orbital symmetries:
       Occupied  (A1) (A1) (E) (E) (A1) (A1) (E) (E) (A1)
       Virtual   (E) (E) (A1) (E) (E) (A1) (A1) (A1) (E) (E)
 Requested convergence on RMS density matrix=1.00D-08 within 128 cycles.
 Requested convergence on MAX density matrix=1.00D-06.
 Requested convergence on             energy=1.00D-06.
 No special actions if energy rises.
 Keep R1 ints in memory in canonical form, NReq=837986.
 An orbital has undefined symmetry, so N**3 symmetry is turned off.
 SCF Done:  E(RHF) =  -340.704519276     A.U. after    7 cycles
             Convg  =    0.7829D-08             -V/T =  2.0007
 Calling FoFJK, ICntrl=      2127 FMM=F ISym2X=1 I1Cent= 0 IOpClX= 0 NMat=1 NMatS=1 NMatT=0.
 ***** Axes restored to original set *****
 -------------------------------------------------------------------
 Center     Atomic                   Forces (Hartrees/Bohr)
 Number     Number              X              Y              Z
 -------------------------------------------------------------------
      1       15          -0.000105537    0.000000001    0.000000000
      2        1           0.000035179   -0.000028287   -0.000000101
      3        1           0.000035179    0.000014055    0.000024548
      4        1           0.000035179    0.000014231   -0.000024447
 -------------------------------------------------------------------
 Cartesian Forces:  Max     0.000105537 RMS     0.000037916

 GradGradGradGradGradGradGradGradGradGradGradGradGradGradGradGradGradGrad
 Berny optimization.
 Using GEDIIS/GDIIS optimizer.
 Internal  Forces:  Max     0.000042319 RMS     0.000033026
 Search for a local minimum.
 Step number   4 out of a maximum of   20
 All quantities printed in internal units (Hartrees-Bohrs-Radians)
 Mixed Optimization -- En-DIIS/RFO-DIIS
 Update second derivatives using D2CorX and points    2    3    4
 DE= -1.80D-05 DEPred=-1.79D-05 R= 1.01D+00
 SS=  1.41D+00  RLast= 1.35D-02 DXNew= 8.4853D-01 4.0465D-02
 Trust test= 1.01D+00 RLast= 1.35D-02 DXMaxT set to 5.05D-01
 The second derivative matrix:
                          R1        R2        R3        A1        A2
           R1           0.24318
           R2          -0.01320   0.24318
           R3          -0.01320  -0.01320   0.24318
           A1           0.00728   0.00728   0.00728   0.12877
           A2           0.00888   0.00888   0.00888  -0.02046   0.15723
           A3           0.00888   0.00888   0.00888  -0.02046  -0.00277
           D1          -0.00279  -0.00279  -0.00279  -0.00770  -0.01756
                          A3        D1
           A3           0.15723
           D1          -0.01756   0.02559
 ITU=  1  1  1  0
 Use linear search instead of GDIIS.
     Eigenvalues ---    0.08163   0.15715   0.16000   0.22446   0.25638
     Eigenvalues ---    0.25638
 RFO step:  Lambda=-1.19383777D-08 EMin= 8.16325225D-02
 Quartic linear search produced a step of  0.03408.
 Iteration  1 RMS(Cart)=  0.00017121 RMS(Int)=  0.00000010
 Iteration  2 RMS(Cart)=  0.00000004 RMS(Int)=  0.00000009
 ClnCor:  largest displacement from symmetrization is 5.80D-06 for atom     4.
 Variable       Old X    -DE/DX   Delta X   Delta X   Delta X     New X
                                 (Linear)    (Quad)   (Total)
    R1        2.68832   0.00004   0.00025  -0.00002   0.00023   2.68855
    R2        2.68832   0.00004   0.00025  -0.00002   0.00023   2.68855
    R3        2.68832   0.00004   0.00025  -0.00002   0.00023   2.68855
    A1        1.67698  -0.00001  -0.00008  -0.00014  -0.00023   1.67675
    A2        1.67698  -0.00003  -0.00008  -0.00015  -0.00023   1.67675
    A3        1.67698  -0.00003  -0.00008  -0.00015  -0.00023   1.67675
    D1       -1.68962   0.00002   0.00010   0.00018   0.00029  -1.68933
         Item               Value     Threshold  Converged?
 Maximum Force            0.000042     0.000450     YES
 RMS     Force            0.000033     0.000300     YES
 Maximum Displacement     0.000387     0.001800     YES
 RMS     Displacement     0.000171     0.001200     YES
 Predicted change in Energy=-2.516409D-08
 Optimization completed.
    -- Stationary point found.
                           ----------------------------
                           !   Optimized Parameters   !
                           ! (Angstroms and Degrees)  !
 --------------------------                            --------------------------
 ! Name  Definition              Value          Derivative Info.                !
 --------------------------------------------------------------------------------
 ! R1    R(1,2)                  1.4226         -DE/DX =    0.0                 !
 ! R2    R(1,3)                  1.4226         -DE/DX =    0.0                 !
 ! R3    R(1,4)                  1.4226         -DE/DX =    0.0                 !
 ! A1    A(2,1,3)               96.0837         -DE/DX =    0.0                 !
 ! A2    A(2,1,4)               96.0837         -DE/DX =    0.0                 !
 ! A3    A(3,1,4)               96.0837         -DE/DX =    0.0                 !
 ! D1    D(2,1,4,3)            -96.8081         -DE/DX =    0.0                 !
 --------------------------------------------------------------------------------
 GradGradGradGradGradGradGradGradGradGradGradGradGradGradGradGradGradGrad

                          Input orientation:                          
 ---------------------------------------------------------------------
 Center     Atomic      Atomic             Coordinates (Angstroms)
 Number     Number       Type             X           Y           Z
 ---------------------------------------------------------------------
      1         15           0       -1.121610    0.562312    0.000000
      2          1           0       -0.392511   -0.659236   -0.004374
      3          1           0       -0.392489    1.169285    1.060071
      4          1           0       -0.392489    1.176862   -1.055697
 ---------------------------------------------------------------------
                    Distance matrix (angstroms):
                    1          2          3          4
     1  P    0.000000
     2  H    1.422598   0.000000
     3  H    1.422598   2.115782   0.000000
     4  H    1.422598   2.115782   2.115782   0.000000
 Stoichiometry    H3P
 Framework group  C3V[C3(P),3SGV(H)]
 Deg. of freedom     2
 Full point group                 C3V     NOp   6
 Largest Abelian subgroup         CS      NOp   2
 Largest concise Abelian subgroup CS      NOp   2
                         Standard orientation:                         
 ---------------------------------------------------------------------
 Center     Atomic      Atomic             Coordinates (Angstroms)
 Number     Number       Type             X           Y           Z
 ---------------------------------------------------------------------
      1         15           0        0.000000    0.000000    0.121519
      2          1           0        0.000000    1.221547   -0.607595
      3          1           0       -1.057891   -0.610774   -0.607595
      4          1           0        1.057891   -0.610774   -0.607595
 ---------------------------------------------------------------------
 Rotational constants (GHZ):    135.8494691    135.8494691    112.0186386

 **********************************************************************

            Population analysis using the SCF density.

 **********************************************************************

 Orbital symmetries:
       Occupied  (A1) (A1) (E) (E) (A1) (A1) (E) (E) (A1)
       Virtual   (E) (E) (A1) (E) (E) (A1) (A1) (A1) (E) (E)
 The electronic state is 1-A1.
 Alpha  occ. eigenvalues --  -79.38629  -7.46103  -5.34525  -5.34525  -5.34249
 Alpha  occ. eigenvalues --   -0.87579  -0.52734  -0.52734  -0.38055
 Alpha virt. eigenvalues --    0.18103   0.18103   0.26458   0.60381   0.60381
 Alpha virt. eigenvalues --    0.63275   0.70958   1.20672   1.26127   1.26127
          Condensed to atoms (all electrons):
              1          2          3          4
     1  P   13.946975   0.321316   0.321316   0.321316
     2  H    0.321316   0.772527  -0.032075  -0.032075
     3  H    0.321316  -0.032075   0.772527  -0.032075
     4  H    0.321316  -0.032075  -0.032075   0.772527
 Mulliken atomic charges:
              1
     1  P    0.089077
     2  H   -0.029692
     3  H   -0.029692
     4  H   -0.029692
 Sum of Mulliken atomic charges =   0.00000
 Mulliken charges with hydrogens summed into heavy atoms:
              1
     1  P    0.000000
 Sum of Mulliken charges with hydrogens summed into heavy atoms =   0.00000
 Electronic spatial extent (au):  <R**2>=             57.0006
 Charge=              0.0000 electrons
 Dipole moment (field-independent basis, Debye):
    X=              0.0000    Y=              0.0000    Z=             -1.2424  Tot=              1.2424
 Quadrupole moment (field-independent basis, Debye-Ang):
   XX=            -15.3439   YY=            -15.3439   ZZ=            -18.0946
   XY=              0.0000   XZ=              0.0000   YZ=              0.0000
 Traceless Quadrupole moment (field-independent basis, Debye-Ang):
   XX=              0.9169   YY=              0.9169   ZZ=             -1.8338
   XY=              0.0000   XZ=              0.0000   YZ=              0.0000
 Octapole moment (field-independent basis, Debye-Ang**2):
  XXX=              0.0000  YYY=             -0.5135  ZZZ=             -1.8226  XYY=              0.0000
  XXY=              0.5135  XXZ=              0.1518  XZZ=              0.0000  YZZ=              0.0000
  YYZ=              0.1518  XYZ=              0.0000
 Hexadecapole moment (field-independent basis, Debye-Ang**3):
 XXXX=            -32.9919 YYYY=            -32.9919 ZZZZ=            -35.6765 XXXY=              0.0000
 XXXZ=              0.0000 YYYX=              0.0000 YYYZ=              0.0047 ZZZX=              0.0000
 ZZZY=              0.0000 XXYY=            -10.9973 XXZZ=            -11.3285 YYZZ=            -11.3285
 XXYZ=             -0.0047 YYXZ=              0.0000 ZZXY=              0.0000
 N-N= 1.748940505179D+01 E-N=-8.464829065341D+02  KE= 3.404777221640D+02
 Symmetry A'   KE= 3.093017454505D+02
 Symmetry A"   KE= 3.117597671345D+01
 1\1\GINC-48-EE-C-BB-F9-B7\FOpt\RHF\3-21G\H3P1\CBARNETT\27-Feb-2019\0\\
 # opt freq hf/3-21g geom=connectivity\\Title Card Required\\0,1\P,-1.1
 216100623,0.5623124885,0.\H,-0.3925108248,-0.6592356473,-0.0043743431\
 H,-0.392488845,1.1692851177,1.060071299\H,-0.392488754,1.1768617021,-1
 .0556969559\\Version=EM64L-G09RevC.01\State=1-A1\HF=-340.7045193\RMSD=
 7.829e-09\RMSF=3.792e-05\Dipole=0.488802,-0.0000059,0.\Quadrupole=-1.3
 633519,0.6816759,0.6816759,0.0000246,0.,0.\PG=C03V [C3(P1),3SGV(H1)]\\
 @


 TO DETECT ERRORS, THE PROGRAMMER MUST HAVE A CONNIVING MIND,
 ONE THAT DELIGHTS IN UNCOVERING FLAWS WHERE BEAUTY AND
 PERFECTION WERE ONCE THOUGHT TO LIE.

             -- THE PSYCHOLOGY OF COMPUTER PROGRAMMING
                GERALD M. WEINBERG
 Job cpu time:  0 days  0 hours  0 minutes  2.2 seconds.
 File lengths (MBytes):  RWF=      5 Int=      0 D2E=      0 Chk=      1 Scr=      1
 Normal termination of Gaussian 09 at Wed Feb 27 13:07:39 2019.
 Link1:  Proceeding to internal job step number  2.
 --------------------------------------------------------------
 #N Geom=AllCheck Guess=TCheck SCRF=Check GenChk RHF/3-21G Freq
 --------------------------------------------------------------
 1/10=4,29=7,30=1,38=1,40=1/1,3;
 2/12=2,40=1/2;
 3/5=5,11=1,14=-4,16=1,25=1,30=1,70=2,71=2,116=1/1,2,3;
 4/5=101/1;
 5/5=2,98=1/2;
 8/6=4,10=90,11=11/1;
 10/13=10,15=4/2;
 11/6=3,8=1,9=11,15=111,16=1/1,2,10;
 10/6=1/2;
 6/7=2,8=2,9=2,10=2,18=1,28=1/1;
 7/8=1,10=1,25=1/1,2,3,16;
 1/10=4,30=1/3;
 99//99;
 Structure from the checkpoint file:  ph3.chk
 -------------------
 Title Card Required
 -------------------
 Charge =  0 Multiplicity = 1
 Redundant internal coordinates found in file.
 P,0,-1.1216100623,0.5623124885,0.
 H,0,-0.3925108248,-0.6592356473,-0.0043743431
 H,0,-0.392488845,1.1692851177,1.060071299
 H,0,-0.392488754,1.1768617021,-1.0556969559
 Recover connectivity data from disk.

 GradGradGradGradGradGradGradGradGradGradGradGradGradGradGradGradGradGrad
 Berny optimization.
 Initialization pass.
                           ----------------------------
                           !    Initial Parameters    !
                           ! (Angstroms and Degrees)  !
 --------------------------                            --------------------------
 ! Name  Definition              Value          Derivative Info.                !
 --------------------------------------------------------------------------------
 ! R1    R(1,2)                  1.4226         calculate D2E/DX2 analytically  !
 ! R2    R(1,3)                  1.4226         calculate D2E/DX2 analytically  !
 ! R3    R(1,4)                  1.4226         calculate D2E/DX2 analytically  !
 ! A1    A(2,1,3)               96.0837         calculate D2E/DX2 analytically  !
 ! A2    A(2,1,4)               96.0837         calculate D2E/DX2 analytically  !
 ! A3    A(3,1,4)               96.0837         calculate D2E/DX2 analytically  !
 ! D1    D(2,1,4,3)            -96.8081         calculate D2E/DX2 analytically  !
 --------------------------------------------------------------------------------
 Trust Radius=3.00D-01 FncErr=1.00D-07 GrdErr=1.00D-07
 Number of steps in this run=      2 maximum allowed number of steps=      2.
 GradGradGradGradGradGradGradGradGradGradGradGradGradGradGradGradGradGrad

                          Input orientation:                          
 ---------------------------------------------------------------------
 Center     Atomic      Atomic             Coordinates (Angstroms)
 Number     Number       Type             X           Y           Z
 ---------------------------------------------------------------------
      1         15           0       -1.121610    0.562312    0.000000
      2          1           0       -0.392511   -0.659236   -0.004374
      3          1           0       -0.392489    1.169285    1.060071
      4          1           0       -0.392489    1.176862   -1.055697
 ---------------------------------------------------------------------
                    Distance matrix (angstroms):
                    1          2          3          4
     1  P    0.000000
     2  H    1.422598   0.000000
     3  H    1.422598   2.115782   0.000000
     4  H    1.422598   2.115782   2.115782   0.000000
 Stoichiometry    H3P
 Framework group  C3V[C3(P),3SGV(H)]
 Deg. of freedom     2
 Full point group                 C3V     NOp   6
 Largest Abelian subgroup         CS      NOp   2
 Largest concise Abelian subgroup CS      NOp   2
                         Standard orientation:                         
 ---------------------------------------------------------------------
 Center     Atomic      Atomic             Coordinates (Angstroms)
 Number     Number       Type             X           Y           Z
 ---------------------------------------------------------------------
      1         15           0        0.000000    0.000000    0.121519
      2          1           0        0.000000    1.221547   -0.607595
      3          1           0       -1.057891   -0.610774   -0.607595
      4          1           0        1.057891   -0.610774   -0.607595
 ---------------------------------------------------------------------
 Rotational constants (GHZ):    135.8494691    135.8494691    112.0186386
 Standard basis: 3-21G (6D, 7F)
 There are    14 symmetry adapted basis functions of A'  symmetry.
 There are     5 symmetry adapted basis functions of A"  symmetry.
 Integral buffers will be    131072 words long.
 Raffenetti 1 integral format.
 Two-electron integral symmetry is turned on.
    19 basis functions,    36 primitive gaussians,    19 cartesian basis functions
     9 alpha electrons        9 beta electrons
       nuclear repulsion energy        17.4894050518 Hartrees.
 NAtoms=    4 NActive=    4 NUniq=    2 SFac= 4.00D+00 NAtFMM=   60 NAOKFM=F Big=F
 One-electron integrals computed using PRISM.
 NBasis=    19 RedAO= T  NBF=    14     5
 NBsUse=    19 1.00D-06 NBFU=    14     5
 Initial guess read from the checkpoint file:  ph3.chk
 B after Tr=     0.000000    0.000000    0.000000
         Rot=    1.000000    0.000000    0.000000    0.000000 Ang=   0.00 deg.
 Initial guess orbital symmetries:
       Occupied  (A1) (A1) (E) (E) (A1) (A1) (E) (E) (A1)
       Virtual   (E) (E) (A1) (E) (E) (A1) (A1) (A1) (E) (E)
 Requested convergence on RMS density matrix=1.00D-08 within 128 cycles.
 Requested convergence on MAX density matrix=1.00D-06.
 Requested convergence on             energy=1.00D-06.
 No special actions if energy rises.
 Keep R1 ints in memory in canonical form, NReq=837986.
 An orbital has undefined symmetry, so N**3 symmetry is turned off.
 SCF Done:  E(RHF) =  -340.704519276     A.U. after    1 cycles
             Convg  =    0.1052D-08             -V/T =  2.0007
 Range of M.O.s used for correlation:     1    19
 NBasis=    19 NAE=     9 NBE=     9 NFC=     0 NFV=     0
 NROrb=     19 NOA=     9 NOB=     9 NVA=    10 NVB=    10
          Differentiating once with respect to electric field.
                with respect to dipole field.
          Electric field/nuclear overlap derivatives assumed to be zero.
          Keep R1 ints in memory in canonical form, NReq=818629.
          There are     3 degrees of freedom in the 1st order CPHF.  IDoFFX=0.
      3 vectors produced by pass  0 Test12= 3.00D-15 3.33D-08 XBig12= 6.70D+00 1.70D+00.
 AX will form     3 AO Fock derivatives at one time.
      3 vectors produced by pass  1 Test12= 3.00D-15 3.33D-08 XBig12= 1.15D-01 2.15D-01.
      3 vectors produced by pass  2 Test12= 3.00D-15 3.33D-08 XBig12= 3.84D-03 3.90D-02.
      3 vectors produced by pass  3 Test12= 3.00D-15 3.33D-08 XBig12= 3.74D-05 2.76D-03.
      3 vectors produced by pass  4 Test12= 3.00D-15 3.33D-08 XBig12= 3.38D-07 3.21D-04.
      3 vectors produced by pass  5 Test12= 3.00D-15 3.33D-08 XBig12= 2.77D-09 2.00D-05.
      3 vectors produced by pass  6 Test12= 3.00D-15 3.33D-08 XBig12= 1.34D-11 1.70D-06.
      3 vectors produced by pass  7 Test12= 3.00D-15 3.33D-08 XBig12= 4.51D-14 1.12D-07.
 Inverted reduced A of dimension    24 with in-core refinement.
 End of Minotr Frequency-dependent properties file   721 does not exist.
 End of Minotr Frequency-dependent properties file   722 does not exist.
 Symmetrizing basis deriv contribution to polar:
 IMax=3 JMax=2 DiffMx= 0.00D+00
 G2DrvN: will do     5 centers at a time, making    1 passes doing MaxLOS=1.
 Calling FoFCou, ICntrl=  3107 FMM=F I1Cent=   0 AccDes= 0.00D+00.
 FoFDir/FoFCou used for L=0 through L=1.
 End of G2Drv Frequency-dependent properties file   721 does not exist.
 End of G2Drv Frequency-dependent properties file   722 does not exist.
          IDoAtm=1111
          Differentiating once with respect to electric field.
                with respect to dipole field.
          Differentiating once with respect to nuclear coordinates.
          Keep R1 ints in memory in canonical form, NReq=818713.
          There are     9 degrees of freedom in the 1st order CPHF.  IDoFFX=4.
 Will reuse    3 saved solutions.
      6 vectors produced by pass  0 Test12= 1.00D-15 1.11D-08 XBig12= 2.55D-02 7.12D-02.
 AX will form     6 AO Fock derivatives at one time.
      6 vectors produced by pass  1 Test12= 1.00D-15 1.11D-08 XBig12= 5.51D-04 1.75D-02.
      6 vectors produced by pass  2 Test12= 1.00D-15 1.11D-08 XBig12= 1.08D-05 1.60D-03.
      6 vectors produced by pass  3 Test12= 1.00D-15 1.11D-08 XBig12= 1.28D-07 1.43D-04.
      6 vectors produced by pass  4 Test12= 1.00D-15 1.11D-08 XBig12= 8.58D-10 1.38D-05.
      6 vectors produced by pass  5 Test12= 1.00D-15 1.11D-08 XBig12= 3.07D-12 1.10D-06.
      2 vectors produced by pass  6 Test12= 1.00D-15 1.11D-08 XBig12= 1.57D-14 5.34D-08.
 Inverted reduced A of dimension    38 with in-core refinement.
 Isotropic polarizability for W=    0.000000       19.88 Bohr**3.
 End of Minotr Frequency-dependent properties file   721 does not exist.
 End of Minotr Frequency-dependent properties file   722 does not exist.

 **********************************************************************

            Population analysis using the SCF density.

 **********************************************************************

 Orbital symmetries:
       Occupied  (A1) (A1) (E) (E) (A1) (A1) (E) (E) (A1)
       Virtual   (E) (E) (A1) (E) (E) (A1) (A1) (A1) (E) (E)
 The electronic state is 1-A1.
 Alpha  occ. eigenvalues --  -79.38629  -7.46103  -5.34525  -5.34525  -5.34249
 Alpha  occ. eigenvalues --   -0.87579  -0.52734  -0.52734  -0.38055
 Alpha virt. eigenvalues --    0.18103   0.18103   0.26458   0.60381   0.60381
 Alpha virt. eigenvalues --    0.63275   0.70958   1.20672   1.26127   1.26127
          Condensed to atoms (all electrons):
              1          2          3          4
     1  P   13.946975   0.321316   0.321316   0.321316
     2  H    0.321316   0.772527  -0.032075  -0.032075
     3  H    0.321316  -0.032075   0.772527  -0.032075
     4  H    0.321316  -0.032075  -0.032075   0.772527
 Mulliken atomic charges:
              1
     1  P    0.089077
     2  H   -0.029692
     3  H   -0.029692
     4  H   -0.029692
 Sum of Mulliken atomic charges =   0.00000
 Mulliken charges with hydrogens summed into heavy atoms:
              1
     1  P    0.000000
 Sum of Mulliken charges with hydrogens summed into heavy atoms =   0.00000
 APT atomic charges:
              1
     1  P    0.365702
     2  H   -0.121901
     3  H   -0.121901
     4  H   -0.121901
 Sum of APT charges=   0.00000
 APT Atomic charges with hydrogens summed into heavy atoms:
              1
     1  P    0.000000
     2  H    0.000000
     3  H    0.000000
     4  H    0.000000
 Sum of APT charges=   0.00000
 Electronic spatial extent (au):  <R**2>=             57.0006
 Charge=              0.0000 electrons
 Dipole moment (field-independent basis, Debye):
    X=              0.0000    Y=              0.0000    Z=             -1.2424  Tot=              1.2424
 Quadrupole moment (field-independent basis, Debye-Ang):
   XX=            -15.3439   YY=            -15.3439   ZZ=            -18.0946
   XY=              0.0000   XZ=              0.0000   YZ=              0.0000
 Traceless Quadrupole moment (field-independent basis, Debye-Ang):
   XX=              0.9169   YY=              0.9169   ZZ=             -1.8338
   XY=              0.0000   XZ=              0.0000   YZ=              0.0000
 Octapole moment (field-independent basis, Debye-Ang**2):
  XXX=              0.0000  YYY=             -0.5135  ZZZ=             -1.8226  XYY=              0.0000
  XXY=              0.5135  XXZ=              0.1518  XZZ=              0.0000  YZZ=              0.0000
  YYZ=              0.1518  XYZ=              0.0000
 Hexadecapole moment (field-independent basis, Debye-Ang**3):
 XXXX=            -32.9919 YYYY=            -32.9919 ZZZZ=            -35.6765 XXXY=              0.0000
 XXXZ=              0.0000 YYYX=              0.0000 YYYZ=              0.0047 ZZZX=              0.0000
 ZZZY=              0.0000 XXYY=            -10.9973 XXZZ=            -11.3285 YYZZ=            -11.3285
 XXYZ=             -0.0047 YYXZ=              0.0000 ZZXY=              0.0000
 N-N= 1.748940505179D+01 E-N=-8.464829065257D+02  KE= 3.404777221565D+02
 Symmetry A'   KE= 3.093017454346D+02
 Symmetry A"   KE= 3.117597672186D+01
  Exact polarizability:  22.339   0.000  22.339   0.000   0.000  14.948
 Approx polarizability:  17.899   0.000  17.899   0.000   0.000  11.715
 Calling FoFJK, ICntrl=    100127 FMM=F ISym2X=1 I1Cent= 0 IOpClX= 0 NMat=1 NMatS=1 NMatT=0.
 Full mass-weighted force constant matrix:
 Low frequencies ---  -22.0019  -22.0019  -17.9243   -0.0027    0.0042    0.0042
 Low frequencies --- 1092.6444 1269.1192 1269.1192
 Harmonic frequencies (cm**-1), IR intensities (KM/Mole), Raman scattering
 activities (A**4/AMU), depolarization ratios for plane and unpolarized
 incident light, reduced masses (AMU), force constants (mDyne/A),
 and normal coordinates:
                     1                      2                      3
                    A1                      E                      E
 Frequencies --  1092.6444              1269.1192              1269.1192
 Red. masses --     1.0814                 1.0283                 1.0283
 Frc consts  --     0.7607                 0.9759                 0.9759
 IR Inten    --    34.6268                27.2660                27.2660
 Raman Activ --    63.9944                86.7402                86.7402
 Depolar (P) --     0.4961                 0.7500                 0.7500
 Depolar (U) --     0.6632                 0.8571                 0.8571
  Atom  AN      X      Y      Z        X      Y      Z        X      Y      Z
     1  15     0.00   0.00   0.05    -0.03   0.00   0.00     0.00   0.03   0.00
     2   1     0.00  -0.27  -0.51     0.73   0.00   0.00     0.00   0.19   0.32
     3   1     0.24   0.14  -0.51     0.04  -0.40   0.28     0.40  -0.50  -0.16
     4   1    -0.24   0.14  -0.51     0.04   0.40  -0.28    -0.40  -0.50  -0.16
                     4                      5                      6
                     E                      E                     A1
 Frequencies --  2397.9586              2397.9586              2409.4744
 Red. masses --     1.0414                 1.0414                 1.0263
 Frc consts  --     3.5281                 3.5281                 3.5104
 IR Inten    --   111.4087               111.4087                35.1961
 Raman Activ --   154.9352               154.9352               246.6993
 Depolar (P) --     0.7500                 0.7500                 0.0110
 Depolar (U) --     0.8571                 0.8571                 0.0217
  Atom  AN      X      Y      Z        X      Y      Z        X      Y      Z
     1  15     0.03   0.00   0.00     0.00   0.03   0.00     0.00   0.00   0.02
     2   1     0.02   0.00   0.00     0.00  -0.71   0.41     0.00   0.52  -0.25
     3   1    -0.52  -0.31  -0.35    -0.31  -0.16  -0.20    -0.45  -0.26  -0.25
     4   1    -0.52   0.31   0.35     0.31  -0.16  -0.20     0.45  -0.26  -0.25

 -------------------
 - Thermochemistry -
 -------------------
 Temperature   298.150 Kelvin.  Pressure   1.00000 Atm.
 Atom     1 has atomic number 15 and mass  30.97376
 Atom     2 has atomic number  1 and mass   1.00783
 Atom     3 has atomic number  1 and mass   1.00783
 Atom     4 has atomic number  1 and mass   1.00783
 Molecular mass:    33.99724 amu.
 Principal axes and moments of inertia in atomic units:
                           1         2         3
     Eigenvalues --    13.28486  13.28486  16.11108
           X           -0.55470   0.83205   0.00000
           Y            0.83205   0.55470   0.00000
           Z            0.00000   0.00000   1.00000
 This molecule is an oblate symmetric top.
 Rotational symmetry number  3.
 Rotational temperatures (Kelvin)      6.51974     6.51974     5.37604
 Rotational constants (GHZ):         135.84947   135.84947   112.01864
 Zero-point vibrational energy      64815.3 (Joules/Mol)
                                   15.49123 (Kcal/Mol)
 Vibrational temperatures:   1572.07  1825.98  1825.98  3450.12  3450.12
          (Kelvin)           3466.69
 
 Zero-point correction=                           0.024687 (Hartree/Particle)
 Thermal correction to Energy=                    0.027571
 Thermal correction to Enthalpy=                  0.028515
 Thermal correction to Gibbs Free Energy=         0.004687
 Sum of electronic and zero-point Energies=           -340.679832
 Sum of electronic and thermal Energies=              -340.676949
 Sum of electronic and thermal Enthalpies=            -340.676004
 Sum of electronic and thermal Free Energies=         -340.699833
 
                     E (Thermal)             CV                S
                      KCal/Mol        Cal/Mol-Kelvin    Cal/Mol-Kelvin
 Total                   17.301              6.583             50.151
 Electronic               0.000              0.000              0.000
 Translational            0.889              2.981             36.502
 Rotational               0.889              2.981             13.522
 Vibrational             15.523              0.621              0.127
                       Q            Log10(Q)             Ln(Q)
 Total Bot       0.698676D-02         -2.155724         -4.963738
 Total V=0       0.158276D+10          9.199414         21.182434
 Vib (Bot)       0.445667D-11        -11.350989        -26.136619
 Vib (V=0)       0.100960D+01          0.004149          0.009553
 Electronic      0.100000D+01          0.000000          0.000000
 Translational   0.779149D+07          6.891621         15.868543
 Rotational      0.201208D+03          2.303644          5.304337
 ***** Axes restored to original set *****
 -------------------------------------------------------------------
 Center     Atomic                   Forces (Hartrees/Bohr)
 Number     Number              X              Y              Z
 -------------------------------------------------------------------
      1       15          -0.000105538    0.000000001    0.000000000
      2        1           0.000035179   -0.000028288   -0.000000101
      3        1           0.000035180    0.000014055    0.000024548
      4        1           0.000035180    0.000014231   -0.000024447
 -------------------------------------------------------------------
 Cartesian Forces:  Max     0.000105538 RMS     0.000037916

 GradGradGradGradGradGradGradGradGradGradGradGradGradGradGradGradGradGrad
 Berny optimization.
 Internal  Forces:  Max     0.000042320 RMS     0.000033026
 Search for a local minimum.
 Step number   1 out of a maximum of    2
 All quantities printed in internal units (Hartrees-Bohrs-Radians)
 Second derivative matrix not updated -- analytic derivatives used.
 The second derivative matrix:
                          R1        R2        R3        A1        A2
           R1           0.21321
           R2           0.00136   0.21321
           R3           0.00136   0.00136   0.21321
           A1           0.00610   0.00610   0.00009   0.05176
           A2           0.01332   0.00258   0.01388  -0.02125   0.19608
           A3           0.00258   0.01332   0.01388  -0.02125  -0.00978
           D1          -0.00809  -0.00809  -0.00342  -0.04732  -0.00084
                          A3        D1
           A3           0.19608
           D1          -0.00084   0.04813
 ITU=  0
     Eigenvalues ---    0.09012   0.17972   0.19771   0.21305   0.22000
     Eigenvalues ---    0.23106
 Angle between quadratic step and forces=  21.23 degrees.
 Linear search not attempted -- first point.
 Iteration  1 RMS(Cart)=  0.00016385 RMS(Int)=  0.00000004
 Iteration  2 RMS(Cart)=  0.00000003 RMS(Int)=  0.00000002
 ClnCor:  largest displacement from symmetrization is 7.56D-09 for atom     4.
 Variable       Old X    -DE/DX   Delta X   Delta X   Delta X     New X
                                 (Linear)    (Quad)   (Total)
    R1        2.68832   0.00004   0.00000   0.00023   0.00023   2.68855
    R2        2.68832   0.00004   0.00000   0.00023   0.00023   2.68855
    R3        2.68832   0.00004   0.00000   0.00023   0.00023   2.68855
    A1        1.67698  -0.00001   0.00000  -0.00022  -0.00022   1.67676
    A2        1.67698  -0.00003   0.00000  -0.00022  -0.00022   1.67676
    A3        1.67698  -0.00003   0.00000  -0.00022  -0.00022   1.67676
    D1       -1.68962   0.00002   0.00000   0.00027   0.00027  -1.68935
         Item               Value     Threshold  Converged?
 Maximum Force            0.000042     0.000450     YES
 RMS     Force            0.000033     0.000300     YES
 Maximum Displacement     0.000373     0.001800     YES
 RMS     Displacement     0.000164     0.001200     YES
 Predicted change in Energy=-2.492575D-08
 Optimization completed.
    -- Stationary point found.
                           ----------------------------
                           !   Optimized Parameters   !
                           ! (Angstroms and Degrees)  !
 --------------------------                            --------------------------
 ! Name  Definition              Value          Derivative Info.                !
 --------------------------------------------------------------------------------
 ! R1    R(1,2)                  1.4226         -DE/DX =    0.0                 !
 ! R2    R(1,3)                  1.4226         -DE/DX =    0.0                 !
 ! R3    R(1,4)                  1.4226         -DE/DX =    0.0                 !
 ! A1    A(2,1,3)               96.0837         -DE/DX =    0.0                 !
 ! A2    A(2,1,4)               96.0837         -DE/DX =    0.0                 !
 ! A3    A(3,1,4)               96.0837         -DE/DX =    0.0                 !
 ! D1    D(2,1,4,3)            -96.8081         -DE/DX =    0.0                 !
 --------------------------------------------------------------------------------
 GradGradGradGradGradGradGradGradGradGradGradGradGradGradGradGradGradGrad

 1\1\GINC-48-EE-C-BB-F9-B7\Freq\RHF\3-21G\H3P1\CBARNETT\27-Feb-2019\0\\
 #N Geom=AllCheck Guess=TCheck SCRF=Check GenChk RHF/3-21G Freq\\Title 
 Card Required\\0,1\P,-1.1216100623,0.5623124885,0.\H,-0.3925108248,-0.
 6592356473,-0.0043743431\H,-0.392488845,1.1692851177,1.060071299\H,-0.
 392488754,1.1768617021,-1.0556969559\\Version=EM64L-G09RevC.01\State=1
 -A1\HF=-340.7045193\RMSD=1.052e-09\RMSF=3.792e-05\ZeroPoint=0.0246868\
 Thermal=0.0275708\Dipole=0.4888021,-0.0000059,0.\DipoleDeriv=0.4223704
 ,-0.000001,0.,-0.000001,0.3373684,0.,0.,0.,0.3373684,-0.1407862,0.2754
 099,0.0009862,0.0480003,-0.1574278,-0.0003221,0.0001719,-0.0003221,-0.
 0674883,-0.1407921,-0.1368503,-0.2390057,-0.0238508,-0.0896914,-0.0387
 793,-0.041656,-0.0387817,-0.1352189,-0.1407921,-0.1385586,0.2380195,-0
 .0241485,-0.0902492,0.0391014,0.0414842,0.0391038,-0.1346611\Polar=14.
 9480861,0.0000888,22.3387275,0.,0.,22.3387275\PolarDeriv=-16.8945233,0
 .0000223,-5.4337758,0.,0.0000002,-5.433818,-0.0000279,-9.6107859,1.744
 5872,0.0000002,0.0187396,-1.7442255,0.,0.0000002,0.0187396,-9.610828,-
 1.7441752,-0.0187396,5.631354,-5.9586994,2.5053928,-0.0213381,0.004971
 3,1.1171583,-0.8817685,3.7207896,-10.2774182,0.0037044,-0.0225731,0.00
 39092,-0.0031576,0.0037044,-0.0083147,2.6863261,-3.9777823,-0.0284745,
 5.6315843,2.9608591,1.4598864,5.1710729,0.5986144,2.162635,0.4381635,2
 .9417901,4.2363463,0.4460661,3.9502701,0.8683672,0.7652423,0.4460775,0
 .4949131,3.465459,2.8468397,8.4204753,5.6315852,2.9978181,1.4684968,-5
 .1497348,-0.6035858,2.1540246,0.443633,2.9482066,4.2964846,-0.4497708,
 -3.9464366,0.8719492,-0.7620847,-0.4497821,-0.505338,3.459043,2.875118
 ,-8.3732613\HyperPolar=-17.5677483,0.0004056,8.0881184,-18.3132784,0.,
 -0.0000024,-0.1967436,8.0885586,18.3128895,0.1967436\PG=C03V [C3(P1),3
 SGV(H1)]\NImag=0\\0.22494806,0.00000047,0.26339361,0.,0.,0.26339358,-0
 .07498060,0.10483809,0.00037542,0.06670172,0.06826504,-0.14482370,-0.0
 0040841,-0.08039160,0.16943097,0.00024446,-0.00040841,-0.03077411,-0.0
 0028788,0.00049270,0.03184354,-0.07498372,-0.05209414,-0.09098148,0.00
 413944,0.00602527,0.01063470,0.06670461,-0.03392104,-0.05893126,-0.049
 17871,-0.01222344,-0.01223064,-0.01874157,0.03994709,0.06581226,-0.059
 24281,-0.04917910,-0.11666343,0.00001169,-0.00172737,-0.00060771,0.069
 76689,0.05932908,0.13545936,-0.07498373,-0.05274441,0.09060606,0.00413
 944,0.00610128,-0.01059128,0.00413966,0.00619740,-0.01053577,0.0667046
 3,-0.03434447,-0.05963864,0.04958713,-0.01222305,-0.01237664,0.0186572
 8,0.00612178,0.00534964,-0.00842262,0.04044573,0.06666563,0.05899836,0
 .04958751,-0.11595604,-0.00009923,0.00164308,-0.00046171,0.01057989,0.
 00859120,-0.01818822,-0.06947901,-0.05982179,0.13460597\\0.00010554,0.
 ,0.,-0.00003518,0.00002829,0.00000010,-0.00003518,-0.00001406,-0.00002
 455,-0.00003518,-0.00001423,0.00002445\\\@


 FROM AN ANONYMOUS WRITER, ON PERSPECTIVE:

 MAN, DESPITE HIS ARTISTIC PRETENSIONS, HIS SOPHISTICATION AND MANY 
 ACCOMPLISHMENTS, OWES THE FACT OF HIS EXISTENCE TO A SIX-INCH LAYER OF 
 TOPSOIL AND THE FACT THAT IT RAINS.
 Job cpu time:  0 days  0 hours  0 minutes  1.0 seconds.
 File lengths (MBytes):  RWF=      5 Int=      0 D2E=      0 Chk=      1 Scr=      1
 Normal termination of Gaussian 09 at Wed Feb 27 13:07:40 2019.
